IO=CFQ ou NOOP => SSD ou boa concorrencia
BFQ (maquinas ruins) HD mecanico de baixa qualidade
DESATIVAR MAQUINA SWAP


CPU=CFS(padrao) => maquinas boas
MuQSS => maquinas ruins



`ps -p <pid> -o %cpu,%mem,cmd`
`ps -C <p_name> -o %cpu,%mem,cmd`
`top -p <pid>`
PACKAGE <sysstat>
`pidstat -h -r -u -v -p 2247 5`
# Time        UID       PID    %usr %system  %guest   %wait    %CPU   CPU  minflt/s  majflt/s     VSZ     RSS   %MEM threads   fd-nr  Command

